file 20435329 1581184738                                        
version 2
run Random_Balanced_Stub-0-20200208-18:58:57-2109
attr configname Random_Balanced_Stub
attr datetime 20200208-18:58:57
attr experiment Random_Balanced_Stub
attr inifile omnetpp.ini
attr iterationvars "$iat=100, $lt=30, $tot=45, $pt=5"
attr iterationvarsf iat=100,lt=30,tot=45,pt=5-
attr measurement "$iat=100, $lt=30, $tot=45, $pt=5"
attr network AirTrafficControl
attr processid 2109
attr repetition 0
attr replication #0
attr resultdir results
attr runnumber 0
attr seedset 0
itervar iat 100
itervar lt 30
itervar pt 5
itervar tot 45
param **.airspace.isInterArrivalTimeRandom true
param **.airspace.isLandingTimeRandom true
param **.parkingarea.isParkingTimeRandom true
param **.parkingarea.isTakeoffTimeRandom true
param **.airspace.interArrivalTime 100
param **.airspace.landingTime 30
param **.parkingarea.takeoffTime 45
param **.parkingarea.parkingTime 5
param **.warmup 500
param **.scaling 1
param **.airspace.totalSamples 100000

vector 0 AirTrafficControl.airspace HoldingQueueSize:vector ETV
attr source HoldingQueueSize
attr title "Holding Queue Size, vector"
vector 1 AirTrafficControl.airspace HoldingQueueWaitingTime:vector ETV
attr source HoldingQueueWaitingTime
attr title "Holding Queue Waiting Time, vector"
vector 2 AirTrafficControl.airport.parkingarea ParkedPlanes:vector ETV
attr source ParkedPlanes
attr title "Parked PLanes, vector"
vector 3 AirTrafficControl.airport.parkingarea DepartQueueSize:vector ETV
attr source DepartQueueSize
attr title "Depart Queue Sizes, vector"
vector 4 AirTrafficControl.airport.parkingarea DepartQueueWaitingTime:vector ETV
attr source DepartQueueWaitingTime
attr title "Depart Queue Waiting Time, vector"
vector 5 AirTrafficControl.airspace AirportResponseTime:vector ETV
attr source AirportResponseTime
attr title "Airport Response Time, vector"
2	1816 689403 2 65533 95.775 1631359.394 32768 0 3 18354 20436
0	691219 693108 1 74772 79.587 1858160.537 32768 0 19 54718 215714
3	1384327 693633 3 75802 102.055 1883310.389 32768 0 19 53619 212375
1	2077960 843002 1 131069 79.587 3245101.984 32768 0 1132.508 3604117.088 1047690919.6703
2	2920962 732718 65537 131071 1631465.611 3245104.981 32768 0 5 18344 20460
4	3653680 838813 3 131071 102.055 3245104.981 32768 0 1160.419 3478328.998 1012344569.6206
5	4492493 897051 6 131072 366.328 3245106.922 32768 3.339 2162.562 9698730.9620001 5225785075.5145
0	5389544 739182 74774 149073 1858163.143 3684000.887 32768 0 13 57591 224089
3	6128726 739538 75808 150998 1883391.278 3731435.275 32768 0 13 55124 209408
2	6868264 749948 131074 196606 3245162.489 4876107.8 32768 0 4 18472 20684
0	7618212 750102 149074 224315 3684002.796 5569583.688 32768 0 17 53009 200573
3	8368314 750214 151002 227096 3731502.468 5638013.758 32768 0 16 51240 190984
1	9118528 880806 131073 262138 3245130.085 6503805.056 32768 0 1121.938 3522548.073 998924197.43816
2	9999334 750046 196610 262145 4876344.708 6503861.327 32768 0 3 18418 20580
4	10749380 877215 131075 262151 3245170.019 6503990.565 32768 0 1099.921 3380708.943 960777674.84605
5	11626595 935745 131076 262154 3245174.504 6504046.276 32768 2.157 2181.077 9513534.845 5024565565.267
0	12562340 749990 224316 299177 5569590.742 7436344.385 32768 0 14 53734 197528
3	13312330 749989 227099 302752 5638054.412 7528339.289 32768 0 14 51539 186815
2	14062319 749921 262147 327680 6503876.193 8140954.003 32768 0 3 18382 20480
0	14812240 750068 299178 374246 7436352.048 9316295.514 32768 0 17 51529 182965
3	15562308 750124 302753 378674 7528344.059 9430551.729 32768 0 16 50270 178190
1	16312432 879522 262146 393213 6503863.373 9798203.568 32768 0 1470.741 3373047.244 927358383.50406
2	17191954 750003 327682 393215 8141037.705 9798219.847 32768 0 3 18374 20508
4	17941957 875428 262154 393215 6504046.276 9798219.847 32768 0 1468.816 3228571.43 898966594.04938
5	18817385 935388 262155 393216 6504097.426 9798315.158 32768 1.328 2385.343 9220992.5829999 4707882873.5973
0	19752773 256069 374247 400001 9316304.066 9969366.83 11184 0 24 19776 95150
1	20008842 45841 393217 400000 9798403.178 9969347.776 1697 0 1045.448 233496.079 83156465.669293
2	20054683 77669 393218 400003 9798489.9 9969404.774 3394 0 3 1905 2125
3	20132352 208896 378675 400003 9430553.069 9969404.774 9119 0 23 16225 82411
4	20341248 45548 393219 400002 9798494.99 9969392.878 1696 0 1040.249 228768.985 82697442.535187
5	20386796 48532 393220 400004 9798540.401 9969410.131 1696 1.731 1717.551 599203.954 400362482.09542

